# vtk DataFile Version 3.0
#This file was generated by the deal.II library on 2023/3/29 at 10:34:26
ASCII
DATASET UNSTRUCTURED_GRID

POINTS 4096 double
0 0 0
0.005 0 0
0 0.005 0
0.005 0.005 0
0 0 0.005
0.005 0 0.005
0 0.005 0.005
0.005 0.005 0.005
0.005 0 0
0.01 0 0
0.005 0.005 0
0.01 0.005 0
0.005 0 0.005
0.01 0 0.005
0.005 0.005 0.005
0.01 0.005 0.005
0.01 0 0
0.015 0 0
0.01 0.005 0
0.015 0.005 0
0.01 0 0.005
0.015 0 0.005
0.01 0.005 0.005
0.015 0.005 0.005
0.015 0 0
0.02 0 0
0.015 0.005 0
0.02 0.005 0
0.015 0 0.005
0.02 0 0.005
0.015 0.005 0.005
0.02 0.005 0.005
0.02 0 0
0.025 0 0
0.02 0.005 0
0.025 0.005 0
0.02 0 0.005
0.025 0 0.005
0.02 0.005 0.005
0.025 0.005 0.005
0.025 0 0
0.03 0 0
0.025 0.005 0
0.03 0.005 0
0.025 0 0.005
0.03 0 0.005
0.025 0.005 0.005
0.03 0.005 0.005
0.03 0 0
0.035 0 0
0.03 0.005 0
0.035 0.005 0
0.03 0 0.005
0.035 0 0.005
0.03 0.005 0.005
0.035 0.005 0.005
0.035 0 0
0.04 0 0
0.035 0.005 0
0.04 0.005 0
0.035 0 0.005
0.04 0 0.005
0.035 0.005 0.005
0.04 0.005 0.005
0 0.005 0
0.005 0.005 0
0 0.01 0
0.005 0.01 0
0 0.005 0.005
0.005 0.005 0.005
0 0.01 0.005
0.005 0.01 0.005
0.005 0.005 0
0.01 0.005 0
0.005 0.01 0
0.01 0.01 0
0.005 0.005 0.005
0.01 0.005 0.005
0.005 0.01 0.005
0.01 0.01 0.005
0.01 0.005 0
0.015 0.005 0
0.01 0.01 0
0.015 0.01 0
0.01 0.005 0.005
0.015 0.005 0.005
0.01 0.01 0.005
0.015 0.01 0.005
0.015 0.005 0
0.02 0.005 0
0.015 0.01 0
0.02 0.01 0
0.015 0.005 0.005
0.02 0.005 0.005
0.015 0.01 0.005
0.02 0.01 0.005
0.02 0.005 0
0.025 0.005 0
0.02 0.01 0
0.025 0.01 0
0.02 0.005 0.005
0.025 0.005 0.005
0.02 0.01 0.005
0.025 0.01 0.005
0.025 0.005 0
0.03 0.005 0
0.025 0.01 0
0.03 0.01 0
0.025 0.005 0.005
0.03 0.005 0.005
0.025 0.01 0.005
0.03 0.01 0.005
0.03 0.005 0
0.035 0.005 0
0.03 0.01 0
0.035 0.01 0
0.03 0.005 0.005
0.035 0.005 0.005
0.03 0.01 0.005
0.035 0.01 0.005
0.035 0.005 0
0.04 0.005 0
0.035 0.01 0
0.04 0.01 0
0.035 0.005 0.005
0.04 0.005 0.005
0.035 0.01 0.005
0.04 0.01 0.005
0 0.01 0
0.005 0.01 0
0 0.015 0
0.005 0.015 0
0 0.01 0.005
0.005 0.01 0.005
0 0.015 0.005
0.005 0.015 0.005
0.005 0.01 0
0.01 0.01 0
0.005 0.015 0
0.01 0.015 0
0.005 0.01 0.005
0.01 0.01 0.005
0.005 0.015 0.005
0.01 0.015 0.005
0.01 0.01 0
0.015 0.01 0
0.01 0.015 0
0.015 0.015 0
0.01 0.01 0.005
0.015 0.01 0.005
0.01 0.015 0.005
0.015 0.015 0.005
0.015 0.01 0
0.02 0.01 0
0.015 0.015 0
0.02 0.015 0
0.015 0.01 0.005
0.02 0.01 0.005
0.015 0.015 0.005
0.02 0.015 0.005
0.02 0.01 0
0.025 0.01 0
0.02 0.015 0
0.025 0.015 0
0.02 0.01 0.005
0.025 0.01 0.005
0.02 0.015 0.005
0.025 0.015 0.005
0.025 0.01 0
0.03 0.01 0
0.025 0.015 0
0.03 0.015 0
0.025 0.01 0.005
0.03 0.01 0.005
0.025 0.015 0.005
0.03 0.015 0.005
0.03 0.01 0
0.035 0.01 0
0.03 0.015 0
0.035 0.015 0
0.03 0.01 0.005
0.035 0.01 0.005
0.03 0.015 0.005
0.035 0.015 0.005
0.035 0.01 0
0.04 0.01 0
0.035 0.015 0
0.04 0.015 0
0.035 0.01 0.005
0.04 0.01 0.005
0.035 0.015 0.005
0.04 0.015 0.005
0 0.015 0
0.005 0.015 0
0 0.02 0
0.005 0.02 0
0 0.015 0.005
0.005 0.015 0.005
0 0.02 0.005
0.005 0.02 0.005
0.005 0.015 0
0.01 0.015 0
0.005 0.02 0
0.01 0.02 0
0.005 0.015 0.005
0.01 0.015 0.005
0.005 0.02 0.005
0.01 0.02 0.005
0.01 0.015 0
0.015 0.015 0
0.01 0.02 0
0.015 0.02 0
0.01 0.015 0.005
0.015 0.015 0.005
0.01 0.02 0.005
0.015 0.02 0.005
0.015 0.015 0
0.02 0.015 0
0.015 0.02 0
0.02 0.02 0
0.015 0.015 0.005
0.02 0.015 0.005
0.015 0.02 0.005
0.02 0.02 0.005
0.02 0.015 0
0.025 0.015 0
0.02 0.02 0
0.025 0.02 0
0.02 0.015 0.005
0.025 0.015 0.005
0.02 0.02 0.005
0.025 0.02 0.005
0.025 0.015 0
0.03 0.015 0
0.025 0.02 0
0.03 0.02 0
0.025 0.015 0.005
0.03 0.015 0.005
0.025 0.02 0.005
0.03 0.02 0.005
0.03 0.015 0
0.035 0.015 0
0.03 0.02 0
0.035 0.02 0
0.03 0.015 0.005
0.035 0.015 0.005
0.03 0.02 0.005
0.035 0.02 0.005
0.035 0.015 0
0.04 0.015 0
0.035 0.02 0
0.04 0.02 0
0.035 0.015 0.005
0.04 0.015 0.005
0.035 0.02 0.005
0.04 0.02 0.005
0 0.02 0
0.005 0.02 0
0 0.025 0
0.005 0.025 0
0 0.02 0.005
0.005 0.02 0.005
0 0.025 0.005
0.005 0.025 0.005
0.005 0.02 0
0.01 0.02 0
0.005 0.025 0
0.01 0.025 0
0.005 0.02 0.005
0.01 0.02 0.005
0.005 0.025 0.005
0.01 0.025 0.005
0.01 0.02 0
0.015 0.02 0
0.01 0.025 0
0.015 0.025 0
0.01 0.02 0.005
0.015 0.02 0.005
0.01 0.025 0.005
0.015 0.025 0.005
0.015 0.02 0
0.02 0.02 0
0.015 0.025 0
0.02 0.025 0
0.015 0.02 0.005
0.02 0.02 0.005
0.015 0.025 0.005
0.02 0.025 0.005
0.02 0.02 0
0.025 0.02 0
0.02 0.025 0
0.025 0.025 0
0.02 0.02 0.005
0.025 0.02 0.005
0.02 0.025 0.005
0.025 0.025 0.005
0.025 0.02 0
0.03 0.02 0
0.025 0.025 0
0.03 0.025 0
0.025 0.02 0.005
0.03 0.02 0.005
0.025 0.025 0.005
0.03 0.025 0.005
0.03 0.02 0
0.035 0.02 0
0.03 0.025 0
0.035 0.025 0
0.03 0.02 0.005
0.035 0.02 0.005
0.03 0.025 0.005
0.035 0.025 0.005
0.035 0.02 0
0.04 0.02 0
0.035 0.025 0
0.04 0.025 0
0.035 0.02 0.005
0.04 0.02 0.005
0.035 0.025 0.005
0.04 0.025 0.005
0 0.025 0
0.005 0.025 0
0 0.03 0
0.005 0.03 0
0 0.025 0.005
0.005 0.025 0.005
0 0.03 0.005
0.005 0.03 0.005
0.005 0.025 0
0.01 0.025 0
0.005 0.03 0
0.01 0.03 0
0.005 0.025 0.005
0.01 0.025 0.005
0.005 0.03 0.005
0.01 0.03 0.005
0.01 0.025 0
0.015 0.025 0
0.01 0.03 0
0.015 0.03 0
0.01 0.025 0.005
0.015 0.025 0.005
0.01 0.03 0.005
0.015 0.03 0.005
0.015 0.025 0
0.02 0.025 0
0.015 0.03 0
0.02 0.03 0
0.015 0.025 0.005
0.02 0.025 0.005
0.015 0.03 0.005
0.02 0.03 0.005
0.02 0.025 0
0.025 0.025 0
0.02 0.03 0
0.025 0.03 0
0.02 0.025 0.005
0.025 0.025 0.005
0.02 0.03 0.005
0.025 0.03 0.005
0.025 0.025 0
0.03 0.025 0
0.025 0.03 0
0.03 0.03 0
0.025 0.025 0.005
0.03 0.025 0.005
0.025 0.03 0.005
0.03 0.03 0.005
0.03 0.025 0
0.035 0.025 0
0.03 0.03 0
0.035 0.03 0
0.03 0.025 0.005
0.035 0.025 0.005
0.03 0.03 0.005
0.035 0.03 0.005
0.035 0.025 0
0.04 0.025 0
0.035 0.03 0
0.04 0.03 0
0.035 0.025 0.005
0.04 0.025 0.005
0.035 0.03 0.005
0.04 0.03 0.005
0 0.03 0
0.005 0.03 0
0 0.035 0
0.005 0.035 0
0 0.03 0.005
0.005 0.03 0.005
0 0.035 0.005
0.005 0.035 0.005
0.005 0.03 0
0.01 0.03 0
0.005 0.035 0
0.01 0.035 0
0.005 0.03 0.005
0.01 0.03 0.005
0.005 0.035 0.005
0.01 0.035 0.005
0.01 0.03 0
0.015 0.03 0
0.01 0.035 0
0.015 0.035 0
0.01 0.03 0.005
0.015 0.03 0.005
0.01 0.035 0.005
0.015 0.035 0.005
0.015 0.03 0
0.02 0.03 0
0.015 0.035 0
0.02 0.035 0
0.015 0.03 0.005
0.02 0.03 0.005
0.015 0.035 0.005
0.02 0.035 0.005
0.02 0.03 0
0.025 0.03 0
0.02 0.035 0
0.025 0.035 0
0.02 0.03 0.005
0.025 0.03 0.005
0.02 0.035 0.005
0.025 0.035 0.005
0.025 0.03 0
0.03 0.03 0
0.025 0.035 0
0.03 0.035 0
0.025 0.03 0.005
0.03 0.03 0.005
0.025 0.035 0.005
0.03 0.035 0.005
0.03 0.03 0
0.035 0.03 0
0.03 0.035 0
0.035 0.035 0
0.03 0.03 0.005
0.035 0.03 0.005
0.03 0.035 0.005
0.035 0.035 0.005
0.035 0.03 0
0.04 0.03 0
0.035 0.035 0
0.04 0.035 0
0.035 0.03 0.005
0.04 0.03 0.005
0.035 0.035 0.005
0.04 0.035 0.005
0 0.035 0
0.005 0.035 0
0 0.04 0
0.005 0.04 0
0 0.035 0.005
0.005 0.035 0.005
0 0.04 0.005
0.005 0.04 0.005
0.005 0.035 0
0.01 0.035 0
0.005 0.04 0
0.01 0.04 0
0.005 0.035 0.005
0.01 0.035 0.005
0.005 0.04 0.005
0.01 0.04 0.005
0.01 0.035 0
0.015 0.035 0
0.01 0.04 0
0.015 0.04 0
0.01 0.035 0.005
0.015 0.035 0.005
0.01 0.04 0.005
0.015 0.04 0.005
0.015 0.035 0
0.02 0.035 0
0.015 0.04 0
0.02 0.04 0
0.015 0.035 0.005
0.02 0.035 0.005
0.015 0.04 0.005
0.02 0.04 0.005
0.02 0.035 0
0.025 0.035 0
0.02 0.04 0
0.025 0.04 0
0.02 0.035 0.005
0.025 0.035 0.005
0.02 0.04 0.005
0.025 0.04 0.005
0.025 0.035 0
0.03 0.035 0
0.025 0.04 0
0.03 0.04 0
0.025 0.035 0.005
0.03 0.035 0.005
0.025 0.04 0.005
0.03 0.04 0.005
0.03 0.035 0
0.035 0.035 0
0.03 0.04 0
0.035 0.04 0
0.03 0.035 0.005
0.035 0.035 0.005
0.03 0.04 0.005
0.035 0.04 0.005
0.035 0.035 0
0.04 0.035 0
0.035 0.04 0
0.04 0.04 0
0.035 0.035 0.005
0.04 0.035 0.005
0.035 0.04 0.005
0.04 0.04 0.005
0 0.04 0
0.005 0.04 0
0 0.045 0
0.005 0.045 0
0 0.04 0.005
0.005 0.04 0.005
0 0.045 0.005
0.005 0.045 0.005
0.005 0.04 0
0.01 0.04 0
0.005 0.045 0
0.01 0.045 0
0.005 0.04 0.005
0.01 0.04 0.005
0.005 0.045 0.005
0.01 0.045 0.005
0.01 0.04 0
0.015 0.04 0
0.01 0.045 0
0.015 0.045 0
0.01 0.04 0.005
0.015 0.04 0.005
0.01 0.045 0.005
0.015 0.045 0.005
0.015 0.04 0
0.02 0.04 0
0.015 0.045 0
0.02 0.045 0
0.015 0.04 0.005
0.02 0.04 0.005
0.015 0.045 0.005
0.02 0.045 0.005
0.02 0.04 0
0.025 0.04 0
0.02 0.045 0
0.025 0.045 0
0.02 0.04 0.005
0.025 0.04 0.005
0.02 0.045 0.005
0.025 0.045 0.005
0.025 0.04 0
0.03 0.04 0
0.025 0.045 0
0.03 0.045 0
0.025 0.04 0.005
0.03 0.04 0.005
0.025 0.045 0.005
0.03 0.045 0.005
0.03 0.04 0
0.035 0.04 0
0.03 0.045 0
0.035 0.045 0
0.03 0.04 0.005
0.035 0.04 0.005
0.03 0.045 0.005
0.035 0.045 0.005
0.035 0.04 0
0.04 0.04 0
0.035 0.045 0
0.04 0.045 0
0.035 0.04 0.005
0.04 0.04 0.005
0.035 0.045 0.005
0.04 0.045 0.005
0 0.045 0
0.005 0.045 0
0 0.05 0
0.005 0.05 0
0 0.045 0.005
0.005 0.045 0.005
0 0.05 0.005
0.005 0.05 0.005
0.005 0.045 0
0.01 0.045 0
0.005 0.05 0
0.01 0.05 0
0.005 0.045 0.005
0.01 0.045 0.005
0.005 0.05 0.005
0.01 0.05 0.005
0.01 0.045 0
0.015 0.045 0
0.01 0.05 0
0.015 0.05 0
0.01 0.045 0.005
0.015 0.045 0.005
0.01 0.05 0.005
0.015 0.05 0.005
0.015 0.045 0
0.02 0.045 0
0.015 0.05 0
0.02 0.05 0
0.015 0.045 0.005
0.02 0.045 0.005
0.015 0.05 0.005
0.02 0.05 0.005
0.02 0.045 0
0.025 0.045 0
0.02 0.05 0
0.025 0.05 0
0.02 0.045 0.005
0.025 0.045 0.005
0.02 0.05 0.005
0.025 0.05 0.005
0.025 0.045 0
0.03 0.045 0
0.025 0.05 0
0.03 0.05 0
0.025 0.045 0.005
0.03 0.045 0.005
0.025 0.05 0.005
0.03 0.05 0.005
0.03 0.045 0
0.035 0.045 0
0.03 0.05 0
0.035 0.05 0
0.03 0.045 0.005
0.035 0.045 0.005
0.03 0.05 0.005
0.035 0.05 0.005
0.035 0.045 0
0.04 0.045 0
0.035 0.05 0
0.04 0.05 0
0.035 0.045 0.005
0.04 0.045 0.005
0.035 0.05 0.005
0.04 0.05 0.005
0 0.05 0
0.005 0.05 0
0 0.055 0
0.005 0.055 0
0 0.05 0.005
0.005 0.05 0.005
0 0.055 0.005
0.005 0.055 0.005
0.005 0.05 0
0.01 0.05 0
0.005 0.055 0
0.01 0.055 0
0.005 0.05 0.005
0.01 0.05 0.005
0.005 0.055 0.005
0.01 0.055 0.005
0.01 0.05 0
0.015 0.05 0
0.01 0.055 0
0.015 0.055 0
0.01 0.05 0.005
0.015 0.05 0.005
0.01 0.055 0.005
0.015 0.055 0.005
0.015 0.05 0
0.02 0.05 0
0.015 0.055 0
0.02 0.055 0
0.015 0.05 0.005
0.02 0.05 0.005
0.015 0.055 0.005
[...]
POINT_DATA 4096
SCALARS D double 1
LOOKUP_TABLE default
300 302.685 300.5 302.84 300.5 302.799 301 302.957 302.685 304.564 302.84 304.638 302.799 304.601 302.957 304.685 304.564 306.128 304.638 306.202 304.601 306.109 304.685 306.181 306.128 307.447 306.202 307.508 306.109 307.463 306.181 307.529 307.447 308.617 307.508 308.699 307.463 308.638 307.529 308.698 308.617 309.585 308.699 309.684 308.638 309.628 308.698 309.723 309.585 310.228 309.684 310.383 309.628 310.33 309.723 310.495 310.228 310 310.383 310.521 310.33 310.521 310.495 311.031 300.5 302.84 301 303.16 301 302.957 301.5 303.278 302.84 304.638 303.16 304.87 302.957 304.685 303.278 304.908 304.638 306.202 304.87 306.348 304.685 306.181 304.908 306.379 306.202 307.508 306.348 307.681 306.181 307.529 306.379 307.694 307.508 308.699 307.681 308.867 307.529 308.698 307.694 308.895 308.699 309.684 308.867 309.904 308.698 309.723 308.895 309.952 309.684 310.383 309.904 310.716 309.723 310.495 309.952 310.843 310.383 310.521 310.716 311.034 310.495 311.031 310.843 311.548 301 303.16 301.5 303.552 301.5 303.278 302 303.67 303.16 304.87 303.552 305.168 303.278 304.908 303.67 305.225 304.87 306.348 305.168 306.622 304.908 306.379 305.225 306.636 306.348 307.681 306.622 307.944 306.379 307.694 306.636 307.957 307.681 308.867 307.944 309.146 307.694 308.895 307.957 309.178 308.867 309.904 309.146 310.237 308.895 309.952 309.178 310.282 309.904 310.716 310.237 311.13 309.952 310.843 310.282 311.247 310.716 311.034 311.13 311.555 310.843 311.548 311.247 312.068 301.5 303.552 302 303.997 302 303.67 302.5 304.105 303.552 305.168 303.997 305.545 303.67 305.225 304.105 305.59 305.168 306.622 305.545 306.923 305.225 306.636 305.59 306.972 306.622 307.944 306.923 308.269 306.636 307.957 306.972 308.289 307.944 309.146 308.269 309.503 307.957 309.178 308.289 309.516 309.146 310.237 309.503 310.622 309.178 310.282 309.516 310.668 310.237 311.13 310.622 311.577 310.282 311.247 310.668 311.69 311.13 311.555 311.577 312.062 311.247 312.068 311.69 312.586 302 303.997 302.5 304.414 302.5 304.105 303 304.537 303.997 305.545 304.414 305.936 304.105 305.59 304.537 305.997 305.545 306.923 305.936 307.316 305.59 306.972 305.997 307.352 306.923 308.269 307.316 308.668 306.972 308.289 307.352 308.665 308.269 309.503 308.668 309.894 308.289 309.516 308.665 309.924 309.503 310.622 309.894 311.032 309.516 310.668 309.924 311.093 310.622 311.577 311.032 312.034 310.668 311.69 311.093 312.153 311.577 312.062 312.034 312.582 311.69 312.586 312.153 313.103 302.5 304.414 303 304.917 303 304.537 303.5 305.028 304.414 305.936 304.917 306.402 304.537 305.997 305.028 306.453 305.936 307.316 306.402 307.734 305.997 307.352 306.453 307.794 307.316 308.668 307.734 309.082 307.352 308.665 307.794 309.097 308.668 309.894 309.082 310.335 308.665 309.924 309.097 310.358 309.894 311.032 310.335 311.497 309.924 311.093 310.358 311.541 311.032 312.034 311.497 312.522 311.093 312.153 311.541 312.636 312.034 312.582 312.522 313.096 312.153 313.103 312.636 313.616 303 304.917 303.5 305.392 303.5 305.028 304 305.511 304.917 306.402 305.392 306.87 305.028 306.453 305.511 306.922 306.402 307.734 306.87 308.205 306.453 307.794 306.922 308.246 307.734 309.082 308.205 309.527 307.794 309.097 308.246 309.545 309.082 310.335 309.527 310.782 309.097 310.358 309.545 310.803 310.335 311.497 310.782 311.965 310.358 311.541 310.803 312.015 311.497 312.522 311.965 313.012 311.541 312.636 312.015 313.131 312.522 313.096 313.012 313.616 312.636 313.616 313.131 314.134 303.5 305.392 304 305.877 304 305.511 304.5 305.997 305.392 306.87 305.877 307.346 305.511 306.922 305.997 307.391 306.87 308.205 307.346 308.689 306.922 308.246 307.391 308.714 308.205 309.527 308.689 309.987 308.246 309.545 308.714 309.997 309.527 310.782 309.987 311.242 309.545 310.803 309.997 311.267 310.782 311.965 311.242 312.439 310.803 312.015 311.267 312.487 311.965 313.012 312.439 313.512 312.015 313.131 312.487 313.623 313.012 313.616 313.512 314.137 313.131 314.134 313.623 314.647 304 305.877 304.5 306.38 304.5 305.997 305 306.478 305.877 307.346 306.38 307.793 305.997 307.391 306.478 307.859 307.346 308.689 307.793 309.133 307.391 308.714 307.859 309.158 308.689 309.987 309.133 310.415 308.714 309.997 309.158 310.46 309.987 311.242 310.415 311.654 309.997 311.267 310.46 311.723 311.242 312.439 311.654 312.936 311.267 312.487 311.723 312.965 312.439 313.512 312.936 314.012 312.487 313.623 312.965 314.122 313.512 314.137 314.012 314.651 313.623 314.647 314.122 315.164 304.5 306.38 305 306.843 305 306.478 305.5 306.954 306.38 307.793 306.843 308.277 306.478 307.859 306.954 308.32 307.793 309.133 308.277 309.582 307.859 309.158 308.32 309.625 309.133 310.415 309.582 310.886 309.158 310.46 309.625 310.903 310.415 311.654 310.886 312.152 310.46 311.723 310.903 312.181 311.654 312.936 312.152 313.386 311.723 312.965 312.181 313.432 312.936 314.012 313.386 314.494 312.965 314.122 313.432 314.603 314.012 314.651 314.494 315.171 314.122 315.164 314.603 315.682 305 306.843 305.5 307.302 305.5 306.954 306 307.42 306.843 308.277 307.302 308.731 306.954 308.32 307.42 308.771 308.277 309.582 308.731 310.045 308.32 309.625 308.771 310.048 309.582 310.886 310.045 311.298 309.625 310.903 310.048 311.335 310.886 312.152 311.298 312.574 310.903 312.181 311.335 312.617 312.152 313.386 312.574 313.835 312.181 313.432 312.617 313.882 313.386 314.494 313.835 314.966 313.432 314.603 313.882 315.09 314.494 315.171 314.966 315.678 314.603 315.682 315.09 316.202 305.5 307.302 306 307.769 306 307.42 306.5 307.881 307.302 308.731 307.769 309.144 307.42 308.771 307.881 309.19 308.731 310.045 309.144 310.449 308.771 310.048 309.19 310.449 310.045 311.298 310.449 311.707 310.048 311.335 310.449 311.721 311.298 312.574 311.707 312.995 311.335 312.617 311.721 313.023 312.574 313.835 312.995 314.266 312.617 313.882 313.023 314.312 313.835 314.966 314.266 315.444 313.882 315.09 314.312 315.556 314.966 315.678 315.444 316.205 315.09 316.202 315.556 316.719 306 307.769 306.5 308.21 306.5 307.881 307 308.321 307.769 309.144 308.21 309.516 307.881 309.19 308.321 309.564 309.144 310.449 309.516 310.753 309.19 310.449 309.564 310.799 310.449 311.707 310.753 312.043 310.449 311.721 310.799 312.062 311.707 312.995 312.043 313.356 311.721 313.023 312.062 313.375 312.995 314.266 313.356 314.665 313.023 314.312 313.375 314.702 314.266 315.444 314.665 315.873 314.312 315.556 314.702 316 315.444 316.205 315.873 316.712 315.556 316.719 316 317.233 306.5 308.21 307 308.608 307 308.321 307.5 308.707 308.21 309.516 308.608 309.84 308.321 309.564 308.707 309.894 309.516 310.753 309.84 311.035 309.564 310.799 309.894 311.089 310.753 312.043 311.035 312.316 310.799 312.062 311.089 312.331 312.043 313.356 312.316 313.614 312.062 313.375 312.331 313.66 313.356 314.665 313.614 314.979 313.375 314.702 313.66 315.028 314.665 315.873 314.979 316.296 314.702 316 315.028 316.409 315.873 316.712 316.296 317.233 316 317.233 316.409 317.75 307 308.608 307.5 308.926 307.5 308.707 308 309.042 308.608 309.84 308.926 310.074 308.707 309.894 309.042 310.117 309.84 311.035 310.074 311.223 309.894 311.089 310.117 311.259 311.035 312.316 311.223 312.492 311.089 312.331 311.259 312.501 312.316 313.614 312.492 313.811 312.331 313.66 312.501 313.85 313.614 314.979 313.811 315.21 313.66 315.028 313.85 315.261 314.979 316.296 315.21 316.645 315.028 316.409 315.261 316.738 316.296 317.233 316.645 317.747 316.409 317.75 316.738 318.267 307.5 308.926 308 309.08 308 309.042 308.5 309.182 308.926 310.074 309.08 310.149 309.042 310.117 309.182 310.199 310.074 311.223 310.149 311.298 310.117 311.259 310.199 311.301 311.223 312.492 311.298 312.543 311.259 312.501 311.301 312.566 312.492 313.811 312.543 313.894 312.501 313.85 312.566 313.907 313.811 315.21 313.894 315.293 313.85 315.261 313.907 315.348 315.21 316.645 315.293 316.778 315.261 316.738 315.348 316.892 316.645 317.747 316.778 318.274 316.738 318.267 316.892 318.788 300.5 302.799 301 302.957 301 303.049 301.5 303.208 302.799 304.601 302.957 304.685 303.049 304.705 303.208 304.799 304.601 306.109 304.685 306.181 304.705 306.162 304.799 306.239 306.109 307.463 306.181 307.529 306.162 307.497 306.239 307.556 307.463 308.638 307.529 308.698 307.497 308.699 307.556 308.758 308.638 309.628 308.698 309.723 308.699 309.747 308.758 309.831 309.628 310.33 309.723 310.495 309.747 310.599 309.831 310.753 310.33 310.521 310.495 311.031 310.599 311.034 310.753 311.548 301 302.957 301.5 303.278 301.5 303.208 302 303.534 302.957 304.685 303.278 304.908 303.208 304.799 303.534 305.025 304.685 306.181 304.908 306.379 304.799 306.239 305.025 306.419 306.181 307.529 306.379 307.694 306.239 307.556 306.419 307.721 307.529 308.698 307.694 308.895 307.556 308.758 307.721 308.94 308.698 309.723 308.895 309.952 308.758 309.831 308.94 310.073 309.723 310.495 309.952 310.843 309.831 310.753 310.073 311.1 310.495 311.031 310.843 311.548 310.753 311.548 311.1 312.068 301.5 303.278 302 303.67 302 303.534 302.5 303.918 303.278 304.908 303.67 305.225 303.534 305.025 303.918 305.326 304.908 306.379 305.225 306.636 305.025 306.419 305.326 306.693 306.379 307.694 306.636 307.957 306.419 307.721 306.693 307.991 307.694 308.895 307.957 309.178 307.721 308.94 307.991 309.229 308.895 309.952 309.178 310.282 308.94 310.073 309.229 310.41 309.952 310.843 310.282 311.247 310.073 311.1 310.41 311.514 310.843 311.548 311.247 312.068 311.1 312.068 311.514 312.586 302 303.67 302.5 304.105 302.5 303.918 303 304.363 303.67 305.225 304.105 305.59 303.918 305.326 304.363 305.699 305.225 306.636 305.59 306.972 305.326 306.693 305.699 307.024 306.636 307.957 306.972 308.289 306.693 307.991 307.024 308.324 307.957 309.178 308.289 309.516 307.991 309.229 308.324 309.572 309.178 310.282 309.516 310.668 309.229 310.41 309.572 310.782 310.282 311.247 310.668 311.69 310.41 311.514 310.782 311.954 311.247 312.068 311.69 312.586 311.514 312.586 311.954 313.103 302.5 304.105 303 304.537 303 304.363 303.5 304.795 304.105 305.59 304.537 305.997 304.363 305.699 304.795 306.11 305.59 306.972 305.997 307.352 305.699 307.024 306.11 307.441 306.972 308.289 307.352 308.665 307.024 308.324 307.441 308.714 308.289 309.516 308.665 309.924 308.324 309.572 308.714 309.977 309.516 310.668 309.924 311.093 309.572 310.782 309.977 311.206 310.668 311.69 311.093 312.153 310.782 311.954 311.206 312.392 311.69 312.586 312.153 313.103 311.954 313.103 312.392 313.616 303 304.537 303.5 305.028 303.5 304.795 304 305.279 304.537 305.997 305.028 306.453 304.795 306.11 305.279 306.548 305.997 307.352 306.453 307.794 306.11 307.441 306.548 307.842 307.352 308.665 307.794 309.097 307.441 308.714 307.842 309.142 308.665 309.924 309.097 310.358 308.714 309.977 309.142 310.411 309.924 311.093 310.358 311.541 309.977 311.206 310.411 311.64 311.093 312.153 311.541 312.636 311.206 312.392 311.64 312.887 312.153 313.103 312.636 313.616 312.392 313.616 312.887 314.134 303.5 305.028 304 305.511 304 305.279 304.5 305.752 305.028 306.453 305.511 306.922 305.279 306.548 305.752 307.037 306.453 307.794 306.922 308.246 306.548 307.842 307.037 308.295 307.794 309.097 308.246 309.545 307.842 309.142 308.295 309.588 309.097 310.358 309.545 310.803 309.142 310.411 309.588 310.852 310.358 311.541 310.803 312.015 310.411 311.64 310.852 312.121 311.541 312.636 312.015 313.131 311.64 312.887 312.121 313.375 312.636 313.616 313.131 314.134 312.887 314.134 313.375 314.647 304 305.511 304.5 305.997 304.5 305.752 305 306.258 305.511 306.922 305.997 307.391 305.752 307.037 306.258 307.5 306.922 308.246 307.391 308.714 307.037 308.295 307.5 308.757 308.246 309.545 308.714 309.997 308.295 309.588 308.757 310.025 309.545 310.803 309.997 311.267 309.588 310.852 310.025 311.322 310.803 312.015 311.267 312.487 310.852 312.121 311.322 312.58 312.015 313.131 312.487 313.623 312.121 313.375 312.58 313.883 313.131 314.134 313.623 314.647 313.375 314.647 313.883 315.164 304.5 305.997 305 306.478 305 306.258 305.5 306.715 305.997 307.391 306.478 307.859 306.258 307.5 306.715 307.972 307.391 308.714 307.859 309.158 307.5 308.757 307.972 309.226 308.714 309.997 309.158 310.46 308.757 310.025 309.226 310.501 309.997 311.267 310.46 311.723 310.025 311.322 310.501 311.79 311.267 312.487 311.723 312.965 311.322 312.58 311.79 313.065 312.487 313.623 312.965 314.122 312.58 313.883 313.065 314.369 313.623 314.647 314.122 315.164 313.883 315.164 314.369 315.682 305 306.478 305.5 306.954 305.5 306.715 306 307.202 306.478 307.859 306.954 308.32 306.715 307.972 307.202 308.438 307.859 309.158 308.32 309.625 307.972 309.226 308.438 309.691 309.158 310.46 309.625 310.903 309.226 310.501 309.691 310.938 310.46 311.723 310.903 312.181 310.501 311.79 310.938 312.231 311.723 312.965 312.181 313.432 311.79 313.065 312.231 313.555 312.965 314.122 313.432 314.603 313.065 314.369 313.555 314.855 314.122 315.164 314.603 315.682 314.369 315.682 314.855 316.202 305.5 306.954 306 307.42 306 307.202 306.5 307.673 306.954 308.32 307.42 308.771 307.202 308.438 307.673 308.896 308.32 309.625 308.771 310.048 308.438 309.691 308.896 310.108 309.625 310.903 310.048 311.335 309.691 310.938 310.108 311.364 310.903 312.181 311.335 312.617 310.938 312.231 311.364 312.669 312.181 313.432 312.617 313.882 312.231 313.555 312.669 313.995 313.432 314.603 313.882 315.09 313.555 314.855 313.995 315.372 314.603 315.682 315.09 316.202 314.855 316.202 315.372 316.719 306 307.42 306.5 307.881 306.5 307.673 307 308.137 307.42 308.771 307.881 309.19 307.673 308.896 308.137 309.298 308.771 310.048 309.19 310.449 308.896 310.108 309.298 310.496 310.048 311.335 310.449 311.721 310.108 311.364 310.496 311.759 311.335 312.617 311.721 313.023 311.364 312.669 311.759 313.072 312.617 313.882 313.023 314.312 312.669 313.995 313.072 314.419 313.882 315.09 314.312 315.556 313.995 315.372 314.419 315.813 315.09 316.202 315.556 316.719 315.372 316.719 315.813 317.233 306.5 307.881 307 308.321 307 308.137 307.5 308.554 307.881 309.19 308.321 309.564 308.137 309.298 308.554 309.682 309.19 310.449 309.564 310.799 309.298 310.496 309.682 310.85 310.449 311.721 310.799 312.062 310.496 311.759 310.85 312.112 311.721 313.023 312.062 313.375 311.759 313.072 312.112 313.419 313.023 314.312 313.375 314.702 313.072 314.419 313.419 314.814 314.312 315.556 314.702 316 314.419 315.813 314.814 316.25 315.556 316.719 316 317.233 315.813 317.233 316.25 317.75 307 308.321 307.5 308.707 307.5 308.554 308 308.957 308.321 309.564 308.707 309.894 308.554 309.682 308.957 310.003 309.564 310.799 309.894 311.089 309.682 310.85 310.003 311.142 310.799 312.062 311.089 312.331 310.85 312.112 311.142 312.371 312.062 313.375 312.331 313.66 312.112 313.419 312.371 313.707 313.375 314.702 313.66 315.028 313.419 314.814 313.707 315.14 314.702 316 315.028 316.409 314.814 316.25 315.14 316.665 316 317.233 316.409 317.75 316.25 317.75 316.665 318.267 307.5 308.707 308 309.042 308 308.957 308.5 309.29 308.707 309.894 309.042 310.117 308.957 310.003 309.29 310.227 309.894 311.089 310.117 311.259 310.003 311.142 310.227 311.299 311.089 312.331 311.259 312.501 311.142 312.371 311.299 312.551 312.331 313.66 312.501 313.85 312.371 313.707 312.551 313.904 313.66 315.028 313.85 315.261 313.707 315.14 313.904 315.364 315.028 316.409 315.261 316.738 315.14 316.665 315.364 316.997 316.409 317.75 316.738 318.267 316.665 318.267 316.997 318.781 308 309.042 308.5 309.182 308.5 309.29 309 309.429 309.042 310.117 309.182 310.199 309.29 310.227 309.429 310.33 310.117 311.259 310.199 311.301 310.227 311.299 310.33 311.367 311.259 312.501 311.301 312.566 311.299 312.551 311.367 312.612 312.501 313.85 312.566 313.907 312.551 313.904 312.612 313.952 313.85 315.261 313.907 315.348 313.904 315.364 313.952 315.463 315.261 316.738 315.348 316.892 315.364 316.997 315.463 317.151 316.738 318.267 316.892 318.788 316.997 318.781 317.151 319.295 301 303.049 301.5 303.208 301.5 303.309 302 303.457 303.049 304.705 303.208 304.799 303.309 304.811 303.457 304.899 304.705 306.162 304.799 306.239 304.811 306.21 304.899 306.271 306.162 307.497 306.239 307.556 306.21 307.521 306.271 307.586 307.497 308.699 307.556 308.758 307.521 308.739 307.586 308.805 308.699 309.747 308.758 309.831 308.739 309.854 308.805 309.941 309.747 310.599 309.831 310.753 309.854 310.867 309.941 311.019 310.599 311.034 310.753 311.548 310.867 311.555 311.019 312.068 301.5 303.208 302 303.534 302 303.457 302.5 303.785 303.208 304.799 303.534 305.025 303.457 304.899 303.785 305.142 304.799 306.239 305.025 306.419 304.899 306.271 305.142 306.472 306.239 307.556 306.419 307.721 306.271 307.586 306.472 307.763 307.556 308.758 307.721 308.94 307.586 308.805 307.763 308.995 308.758 309.831 308.94 310.073 308.805 309.941 308.995 310.174 309.831 310.753 310.073 311.1 309.941 311.019 310.174 311.364 310.753 311.548 311.1 312.068 311.019 312.068 311.364 312.586 302 303.534 302.5 303.918 302.5 303.785 303 304.185 303.534 305.025 303.918 305.326 303.785 305.142 304.185 305.451 305.025 306.419 305.326 306.693 305.142 306.472 305.451 306.751 306.419 307.721 306.693 307.991 306.472 307.763 306.751 308.033 307.721 308.94 307.991 309.229 307.763 308.995 308.033 309.285 308.94 310.073 309.229 310.41 308.995 310.174 309.285 310.513 310.073 311.1 310.41 311.514 310.174 311.364 310.513 311.767 311.1 312.068 311.514 312.586 311.364 312.586 311.767 313.103 302.5 303.918 303 304.363 303 304.185 303.5 304.619 303.918 305.326 304.363 305.699 304.185 305.451 304.619 305.82 305.326 306.693 305.699 307.024 305.451 306.751 305.82 307.096 306.693 307.991 307.024 308.324 306.751 308.033 307.096 308.375 307.991 309.229 308.324 309.572 308.033 309.285 308.375 309.634 309.229 310.41 309.572 310.782 309.285 310.513 309.634 310.894 310.41 311.514 310.782 311.954 310.513 311.767 310.894 312.21 311.514 312.586 311.954 313.103 311.767 313.103 312.21 313.616 303 304.363 303.5 304.795 303.5 304.619 304 305.06 304.363 305.699 304.795 306.11 304.619 305.82 305.06 306.214 305.699 307.024 306.11 307.441 305.82 307.096 306.214 307.484 307.024 308.324 307.441 308.714 307.096 308.375 307.484 308.757 308.324 309.572 308.714 309.977 308.375 309.634 308.757 310.023 309.572 310.782 309.977 311.206 309.634 310.894 310.023 311.306 310.782 311.954 311.206 312.392 310.894 312.21 311.306 312.681 311.954 313.103 312.392 313.616 312.21 313.616 312.681 314.134 303.5 304.795 304 305.279 304 305.06 304.5 305.529 304.795 306.11 305.279 306.548 305.06 306.214 305.529 306.653 306.11 307.441 306.548 307.842 306.214 307.484 306.653 307.927 307.441 308.714 307.842 309.142 307.484 308.757 307.927 309.178 308.714 309.977 309.142 310.411 308.757 310.023 309.178 310.447 309.977 311.206 310.411 311.64 310.023 311.306 310.447 311.749 311.206 312.392 311.64 312.887 311.306 312.681 311.749 313.147 312.392 313.616 312.887 314.134 312.681 314.134 313.147 314.647 304 305.279 304.5 305.752 304.5 305.529 305 306.015 305.279 306.548 305.752 307.037 305.529 306.653 306.015 307.146 306.548 307.842 307.037 308.295 306.653 307.927 307.146 308.362 307.842 309.142 308.295 309.588 307.927 309.178 308.362 309.625 309.142 310.411 309.588 310.852 309.178 310.447 309.625 310.906 310.411 311.64 310.852 312.121 310.447 311.749 310.906 312.231 311.64 312.887 312.121 313.375 311.749 313.147 312.231 313.648 312.887 314.134 313.375 314.647 313.147 314.647 313.648 315.164 304.5 305.752 305 306.258 305 306.015 305.5 306.5 305.752 307.037 306.258 307.5 306.015 307.146 306.5 307.628 307.037 308.295 307.5 308.757 307.146 308.362 307.628 308.828 308.295 309.588 308.757 310.025 308.362 309.625 308.828 310.078 309.588 310.852 310.025 311.322 309.625 310.906 310.078 311.374 310.852 312.121 311.322 312.58 310.906 312.231 311.374 312.713 312.121 313.375 312.58 313.883 312.231 313.648 312.713 314.139 313.375 314.647 313.883 315.164 313.648 315.164 314.139 315.682 305 306.258 305.5 306.715 305.5 306.5 306 306.971 306.258 307.5 306.715 307.972 306.5 307.628 306.971 308.073 307.5 308.757 307.972 309.226 307.628 308.828 308.073 309.275 308.757 310.025 309.226 310.501 308.828 31